Species,Description,Phase,Stable,Molecular Weight (g/mol),Explicit/Lumped,Representative,SMILES,H Law (M/atm),Enthalpy of solution (K),Aerosol density (kg/m3),Kappa_org,C* (microg/m3),Enthalpy of vaporization (J/mol),OM to OC (g/g)
ROCP1OXY3,Oxygenated ROC species with C* of 10 ug/m3 and O:C of 0.3,GP,Yes,202.3,L,11-hydroxyundecanoic acid,C(CCCCCO)CCCCC(=O)O,10200.0,0.0,1400.0,0.09,10.0,81000.0,1.54
ROCP2ALK,Alkane-like ROC species with C* of 10+2 ug/m3,GP,Yes,338.66,L,Tetracosane,CCCCCCCCCCCCCCCCCCCCCCCC,1170.0,0.0,1400.0,0.03,100.0,77000.0,1.17
ROCP2ALKP,Peroxy radicals from ROCP2ALK oxidation,G,No,369.65,L,tetracosan-3-ylperoxy,CCCCCCCCCCCCCCCCCCCCCC(CC)O[O],NA,NA,NA,NA,NA,NA,NA
ROCP2ALKP2,Hydroxy peroxy radicals from ROCP2ALK alkoxy product,G,No,385.65,L,(3-hydroxytetracosan-6-yl)peroxy,CCCCCCCCCCCCCCCCCCC(O[O])CCC(O)CC,NA,NA,NA,NA,NA,NA,NA
ROCP2OXY2,Oxygenated ROC species with C* of 10+2 ug/m3 and O:C of 0.2,GP,Yes,200.3,L,Dodecanoic Acid,CCCCCCCCCCCC(=O)O,4930.0,0.0,1400.0,0.08,100.0,77000.0,1.42
ROCP3ALK,Alkane-like ROC species with C* of 10+3 ug/m3,GP,Yes,296.58,L,Heneicosane,CCCCCCCCCCCCCCCCCCCCC,610.0,0.0,1400.0,0.03,1000.0,73000.0,1.17
ROCP3ALKP,Peroxy radicals from ROCP3ALK oxidation,G,No,327.57,L,henicosan-3-ylperoxy,CCCCCCCCCCCCCCCCCCC(CC)O[O],NA,NA,NA,NA,NA,NA,NA
ROCP3ALKP2,Hydroxy peroxy radicals from ROCP3ALK alkoxy product,G,No,343.57,L,(3-hydroxyhenicosan-6-yl)peroxy,CCCCCCCCCCCCCCCC(O[O])CCC(O)CC,NA,NA,NA,NA,NA,NA,NA
ROCP3OXY2,Oxygenated ROC species with C* of 10+3 ug/m3 and O:C of 0.2,GP,Yes,186.3,L,11-hydroxyundecanal,C(CCCCCO)CCCCC=O,110.0,0.0,1400.0,0.08,1000.0,73000.0,1.42
ROCP4ALK,Alkane-like ROC species with C* of 10+4 ug/m3,G,Yes,254.5,L,Octadecane,CCCCCCCCCCCCCCCCCC,29.4,0.0,NA,NA,NA,NA,NA
ROCP4ALKP,Peroxy radicals from ROCP4ALK oxidation,G,No,285.49,L,octadecan-3-ylperoxy,CCCCCCCCCCCCCCCC(CC)O[O],NA,NA,NA,NA,NA,NA,NA
ROCP4ALKP2,Hydroxy peroxy radicals from ROCP4ALK alkoxy product,G,No,301.49,L,(3-hydroxyoctadecan-6-yl)peroxy,CCCCCCCCCCCCC(O[O])CCC(O)CC,NA,NA,NA,NA,NA,NA,NA
ROCP4OXY2,Oxygenated ROC species with C* of 10+4 ug/m3 and O:C of 0.2,G,Yes,158.2,L,2-Ethylheptanoic Acid,CCCCCC(CC)C(=O)O,645.0,0.0,NA,NA,NA,NA,NA
ROCP5ALK,Alkane-like ROC species with C* of 10+5 ug/m3,G,Yes,198.39,L,Tetradecane,CCCCCCCCCCCCCC,0.0541,0.0,NA,NA,NA,NA,NA
ROCP5ALKP,Peroxy radicals from ROCP5ALK oxidation,G,No,229.38,L,tetradecan-3-ylperoxy,CCCCCCCCCCCC(CC)O[O],NA,NA,NA,NA,NA,NA,NA
ROCP5ALKP2,Hydroxy peroxy radicals from ROCP5ALK alkoxy product,G,No,245.38,L,(3-hydroxytetradecan-6-yl)peroxy,CCCCCCCCC(O[O])CCC(O)CC,NA,NA,NA,NA,NA,NA,NA
ROCP5ARO,Aromatic ROC species with C* of 10+5 ug/m3,G,Yes,190.33,L,Benzene; octyl-,CCCCCCCCC1=CC=CC=C1,0.415,0.0,NA,NA,NA,NA,NA
ROCP5AROP,Peroxy radicals from ROCP5ARO oxidation,G,No,271.33,L,{8-hydroxy-5-octyl-6;7-dioxabicyclo[3.2.1]oct-3-en-2-yl}peroxy,CCCCCCCCC1(OO2)C=CC(O[O])C2C1O,NA,NA,NA,NA,NA,NA,NA
ROCP5OXY1,Oxygenated ROC species with C* of 10+5 ug/m3 and O:C of 0.1,G,Yes,170.3,L,Undecanal,CCCCCCCCCCC=O,1.57,0.0,NA,NA,NA,NA,NA
ROCP6ALK,Alkane-like ROC species with C* of 10+6 ug/m3,G,Yes,184.37,L,Tridecane,CCCCCCCCCCCCC,0.0069,0.0,NA,NA,NA,NA,NA
ROCP6ALKP,Peroxy radicals from ROCP6ALK oxidation,G,No,215.36,L,tridecan-3-ylperoxy,CCCCCCCCCCC(CC)O[O],NA,NA,NA,NA,NA,NA,NA
ROCP6ALKP2,Hydroxy peroxy radicals from ROCP6ALK alkoxy product,G,No,231.36,L,(3-hydroxytridecan-6-yl)peroxy,CCCCCCCC(O[O])CCC(O)CC,NA,NA,NA,NA,NA,NA,NA
ROCP6ARO,Aromatic ROC species with C* of 10+6 ug/m3,G,Yes,176.3,L,1-Hexyl-4-methylbenzene,CCCCCCC1=CC=C(C)C=C1,0.187,0.0,NA,NA,NA,NA,NA
ROCP6AROP,Peroxy radicals from ROCP6ARO oxidation,G,No,257.3,L,{2-hexyl-8-hydroxy-5-methyl-6;7-dioxabicyclo[3.2.1]oct-3-en-2-yl}peroxy,OC1C2C(CCCCCC)(O[O])C=CC1(C)OO2,NA,NA,NA,NA,NA,NA,NA
ROCP6OXY1,Oxygenated ROC species with C* of 10+6 ug/m3 and O:C of 0.1,G,Yes,142.2,L,Nonanal,CCCCCCCCC=O,1.37,0.0,NA,NA,NA,NA,NA
ROH,C3 and higher alcohols ,G,Yes,60.0,L,Propanol,CCCO,110.0,0.0,NA,NA,NA,NA,NA
SESQ,Sesquiterpenes ,G,Yes,204.4,L,b-caryophyllene,C/C1=C/CCC(=C)C2CC(C)(C)C2CC\1,0.107,0.0,NA,NA,NA,NA,NA
SESQNRO2,Peroxy radicals from SESQ reaction with nitrate radicals,G,No,298.4,L,[4;11;11-trimethyl-8-methylidene-5-(nitrooxy)bicyclo[7.2.0]undecan-4-yl]peroxy,[O]OC1(C)CCC2C(CC2(C)C)C(=C)CCC1O[N+](=O)[O-],NA,NA,NA,NA,NA,NA,NA
SESQRO2,Peroxy radicals from SESQ reaction with OH,G,No,253.4,L,{5-hydroxy-4;11;11-trimethyl-8-methylidenebicyclo[7.2.0]undecan-4-yl}peroxy,[O]OC1(C)CCC2C(CC2(C)C)C(=C)CCC1O,NA,NA,NA,NA,NA,NA,NA
SLOWROC,Slowly reacting ROC with kOH< 3.5x10-13 cm3 s-1 ,G,Yes,75.4,L,Hydrogen cyanide,C#N,1.95,0.0,NA,NA,NA,NA,NA
SO2,Sulfur dioxide ,G,Yes,64.0,E,Sulfur dioxide,O=S=O,1.4,2900.0,NA,NA,NA,NA,NA
SRF,Surface area of particles,P,Yes,1.0,L,Surface area of particles,NA,NA,NA,NA,NA,NA,NA,NA
SULF,Sulfuric acid,G,Yes,98.0,E,Sulfuric acid,OS(=O)(=O)O,1e+30,0.0,NA,NA,NA,NA,NA
SULRXN,Precursor of Aerosol Sulfate (tracking species) ,G,No,98.0,NA,NA,NA,NA,NA,NA,NA,NA,NA,NA
TOL,Toluene ,G,Yes,92.14,E,Toluene,CC1=CC=CC=C1,0.15,0.0,NA,NA,NA,NA,NA
TOLP,Peroxy radicals formed from TOL,G,No,173.14,L,{8-hydroxy-5-methyl-6;7-dioxabicyclo[3.2.1]oct-3-en-2-yl}peroxy,[O]OC1C=CC2(C)OOC1C2O,NA,NA,NA,NA,NA,NA,NA
TRPN,Terpene nitrates,G,Yes,215.0,L,3-hydroxy-2;6;6-trimethylbicyclo[3.1.1]heptan-2-yl nitrate,O=N(=O)OC1(C)C(O)CC2CC1C2(C)C,6300.0,9600.0,NA,NA,NA,NA,NA
UALD,Unsaturated aldehydes,G,Yes,84.1,L,2-Methylbut-2-enal,CC=C(C)C=O,44.0,0.0,NA,NA,NA,NA,NA
UALP,Peroxy radicals formed from UALD ,G,No,133.0,L,(3-hydroxy-3-methyl-4-oxobutan-2-yl)peroxy,CC(O[O])C(C)(O)C=O,NA,NA,NA,NA,NA,NA,NA
XO2,Accounts for addition NO to NO2 conversions (tracking species),G,No,1.0,NA,NA,NA,NA,NA,NA,NA,NA,NA,NA
XYE,O- and p-xylene and other less reactive volatile aromatics with kOH < 1.46x10-11 cm3 s-1 ,G,Yes,106.2,L,Ethylbenzene,CCC1=CC=CC=C1,0.127,4000.0,NA,NA,NA,NA,NA
XYEP,Peroxy radicals formed from XYE,G,No,187.17,L,{5-ethyl-8-hydroxy-6;7-dioxabicyclo[3.2.1]oct-3-en-2-yl}peroxy,[O]OC1C=CC2(CC)OOC1C2O,NA,NA,NA,NA,NA,NA,NA
XYM,M-xylene and other more reactive volatile aromatics with kOH > 1.46x10-11 cm3 s-1 ,G,Yes,106.2,L,m-Xylene,CC1=CC(C)=CC=C1,0.14,0.0,NA,NA,NA,NA,NA
XYMP,Peroxy radicals formed from XYM,G,No,187.17,L,{8-hydroxy-1;5-dimethyl-6;7-dioxabicyclo[3.2.1]oct-3-en-2-yl}peroxy,[O]OC1C=CC2(C)OOC1(C)C2O,NA,NA,NA,NA,NA,NA,NA